[Molden Format]
[Atoms] (AU)
  C         1      6          1.7327419702          0.0533689337         -0.0036081848
  O         2      8          0.7505542933         -1.1059671867          2.3170257834
  H         3      1          1.0327235716          2.0233174214         -0.0364617163
  H         4      1          1.0593474856         -0.9038789890         -1.7513751494
  H         5      1          3.8342953871          0.1097174605         -0.0717042870
  H         6      1          1.4826000636         -2.9017316961          2.1859764755
[GTO] (AU)
      1
  s     3
    0.7161683735E+02    0.1543289673E+00
    0.1304509632E+02    0.5353281423E+00
    0.3530512160E+01    0.4446345422E+00
  s     3
    0.2941249355E+01   -0.9996722919E-01
    0.6834830964E+00    0.3995128261E+00
    0.2222899159E+00    0.7001154689E+00
  p     3
    0.2941249355E+01    0.1559162750E+00
    0.6834830964E+00    0.6076837186E+00
    0.2222899159E+00    0.3919573931E+00

      2
  s     3
    0.1307093214E+03    0.1543289673E+00
    0.2380886605E+02    0.5353281423E+00
    0.6443608313E+01    0.4446345422E+00
  s     3
    0.5033151319E+01   -0.9996722919E-01
    0.1169596125E+01    0.3995128261E+00
    0.3803889600E+00    0.7001154689E+00
  p     3
    0.5033151319E+01    0.1559162750E+00
    0.1169596125E+01    0.6076837186E+00
    0.3803889600E+00    0.3919573931E+00

      3
  s     3
    0.3425250914E+01    0.1543289673E+00
    0.6239137298E+00    0.5353281423E+00
    0.1688554040E+00    0.4446345422E+00

      4
  s     3
    0.3425250914E+01    0.1543289673E+00
    0.6239137298E+00    0.5353281423E+00
    0.1688554040E+00    0.4446345422E+00

      5
  s     3
    0.3425250914E+01    0.1543289673E+00
    0.6239137298E+00    0.5353281423E+00
    0.1688554040E+00    0.4446345422E+00

      6
  s     3
    0.3425250914E+01    0.1543289673E+00
    0.6239137298E+00    0.5353281423E+00
    0.1688554040E+00    0.4446345422E+00

[MO]
    Sym= a1
  Ene=    -0.1887390940E+02
  Spin= Alpha
  Occup= 2.00000000
   1   0.0006013791
   2  -0.0045883674
   3   0.0017136206
   4   0.0016903453
   5  -0.0038478352
   6   0.9935825531
   7   0.0281955919
   8   0.0023502590
   9  -0.0017287640
  10  -0.0028465863
  11   0.0003717263
  12   0.0003126023
  13   0.0003112740
  14  -0.0064213905
    Sym= a2
  Ene=    -0.1004292603E+02
  Spin= Alpha
  Occup= 2.00000000
   1  -0.9905628588
   2  -0.0435013290
   3  -0.0003628593
   4  -0.0008806852
   5   0.0011345385
   6  -0.0006629776
   7   0.0052455920
   8   0.0012480593
   9   0.0020087818
  10  -0.0032704771
  11   0.0091431551
  12   0.0089889254
  13   0.0089885361
  14   0.0012682454
    Sym= a3
  Ene=    -0.9322307255E+00
  Spin= Alpha
  Occup= 2.00000000
   1  -0.0852059960
   2   0.2224875302
   3  -0.0315157517
   4  -0.0496060379
   5   0.0818953796
   6  -0.2213071984
   7   0.7907908618
   8   0.0927279085
   9  -0.0641777896
  10  -0.1147287717
  11   0.0286653530
  12   0.0276775826
  13   0.0276635569
  14   0.1553527655
    Sym= a4
  Ene=    -0.6312378399E+00
  Spin= Alpha
  Occup= 2.00000000
   1   0.2060725799
   2  -0.6161247566
   3  -0.0348750380
   4  -0.0626230143
   5   0.0954058086
   6  -0.0742393662
   7   0.3044755291
   8   0.0025229843
   9  -0.1455705020
  10   0.0833459827
  11  -0.2000527177
  12  -0.1957983983
  13  -0.1958042707
  14   0.1452679818
    Sym= a5
  Ene=    -0.4254692624E+00
  Spin= Alpha
  Occup= 2.00000000
   1   0.0044098701
   2   0.0091723604
   3  -0.2694334103
   4   0.2234921261
   5   0.3107639102
   6  -0.0400649556
   7   0.1845868185
   8  -0.0896020997
   9   0.4219376228
  10  -0.1055516444
  11   0.2069242800
  12  -0.2105838673
  13  -0.2102354426
  14  -0.3299839816
    Sym= a6
  Ene=    -0.3861483725E+00
  Spin= Alpha
  Occup= 2.00000000
   1  -0.0000176419
   2   0.0000761265
   3   0.4696731760
   4   0.1709734332
   5   0.2840937853
   6  -0.0000405503
   7   0.0001936066
   8   0.1795403245
   9   0.0654279014
  10   0.1086832935
  11  -0.0004668784
  12  -0.3873349379
  13   0.3877171394
  14  -0.0001129487
    Sym= a7
  Ene=    -0.3505171550E+00
  Spin= Alpha
  Occup= 2.00000000
   1  -0.0167748817
   2   0.0955649598
   3   0.0624124573
   4  -0.5074466521
   5   0.2021303414
   6   0.0139758008
   7  -0.0591845109
   8   0.0931677501
   9   0.2958703900
  10  -0.3316866386
  11  -0.4304073878
  12   0.0732438195
  13   0.0725500449
  14  -0.2550468029
    Sym= a8
  Ene=    -0.2389165178E+00
  Spin= Alpha
  Occup= 2.00000000
   1   0.0265089770
   2  -0.1082977290
   3   0.1614595617
   4  -0.0113283021
   5  -0.2603784197
   6  -0.1078619200
   7   0.5300194809
   8  -0.4006278181
   9   0.2940647874
  10   0.4853385219
  11  -0.1809305939
  12   0.1714990297
  13   0.1709616958
  14  -0.3188882385
    Sym= a9
  Ene=    -0.1429460014E+00
  Spin= Alpha
  Occup= 2.00000000
   1  -0.0000023172
   2   0.0000085907
   3  -0.0549028107
   4  -0.0199594329
   5  -0.0332583979
   6  -0.0000032860
   7   0.0000145590
   8   0.7879247284
   9   0.2864629448
  10   0.4767522188
  11   0.0003325645
  12   0.2201198257
  13  -0.2203902213
  14  -0.0000055867
   Sym= a10
  Ene=     0.2939843956E+00
  Spin= Alpha
  Occup= 0.00000000
   1  -0.0604306021
   2   0.2730599013
   3  -0.2345408369
   4  -0.3037313784
   5   0.5720733107
   6   0.1159129330
   7  -0.7139150771
   8  -0.4354049427
   9   0.3012361084
  10   0.5384199079
  11   0.0055088003
  12   0.0381989083
  13   0.0370845021
  14   0.7353916847
   Sym= a11
  Ene=     0.3605567853E+00
  Spin= Alpha
  Occup= 0.00000000
   1  -0.0904747247
   2   0.4698304318
   3   0.0080419619
   4  -0.5766485207
   5   0.3338674741
   6  -0.0048434574
   7   0.0500703766
   8  -0.0111665808
   9  -0.7112947835
  10   0.4458135854
  11   0.3257446433
  12  -0.2440617711
  13  -0.2435600365
  14  -0.7404255644
   Sym= a12
  Ene=     0.4332609628E+00
  Spin= Alpha
  Occup= 0.00000000
   1  -0.0001462330
   2   0.0008326563
   3   0.8847886912
   4   0.3261630536
   5   0.5376986376
   6  -0.0000614168
   7   0.0004365573
   8  -0.1585504786
   9  -0.0596427085
  10  -0.0961170614
  11  -0.0029549379
  12   0.8347849693
  13  -0.8325493820
  14  -0.0015202711
   Sym= a13
  Ene=     0.4421112127E+00
  Spin= Alpha
  Occup= 0.00000000
   1   0.0315027817
   2  -0.2239034205
   3  -0.5850218668
   4   0.6225702935
   5   0.5841191210
   6   0.0015869866
   7  -0.0009944963
   8   0.0796038837
   9  -0.3967631038
  10   0.1084656798
  11  -0.6525932503
  12   0.6279349330
  13   0.6328853459
  14  -0.2835386559
   Sym= a14
  Ene=     0.4587358604E+00
  Spin= Alpha
  Occup= 0.00000000
   1   0.2209853183
   2  -1.3516485341
   3   0.0124111095
   4  -0.4687773778
   5   0.2650315677
   6  -0.0175807920
   7   0.1011094895
   8   0.0462352585
   9   0.0712337931
  10  -0.1198085713
  11   0.9914611662
  12   0.5730662047
  13   0.5712031067
  14  -0.0514309549
[SCFCONV]
  scf-first    1  THROUGH    8
  -.1138717596E+03
  -.1141528666E+03
  -.1141608714E+03
  -.1141706428E+03
  -.1141707295E+03
  -.1141707313E+03
  -.1141707315E+03
  -.1141707315E+03
  scf    1  THROUGH    6
  -.1141668242E+03
  -.1141722905E+03
  -.1141722930E+03
  -.1141722970E+03
  -.1141722970E+03
  -.1141722970E+03
  scf    1  THROUGH    7
  -.1141443703E+03
  -.1141780378E+03
  -.1141781563E+03
  -.1141784372E+03
  -.1141784375E+03
  -.1141784375E+03
  -.1141784375E+03
  scf    1  THROUGH    7
  -.1141678351E+03
  -.1141789623E+03
  -.1141789797E+03
  -.1141790218E+03
  -.1141790219E+03
  -.1141790219E+03
  -.1141790219E+03
  scf    1  THROUGH    6
  -.1141783676E+03
  -.1141790304E+03
  -.1141790305E+03
  -.1141790309E+03
  -.1141790309E+03
  -.1141790309E+03
  scf    1  THROUGH    6
  -.1141791291E+03
  -.1141790327E+03
  -.1141790328E+03
  -.1141790328E+03
  -.1141790328E+03
  -.1141790328E+03
  scf-last    1  THROUGH    5
  -.1141791647E+03
  -.1141790329E+03
  -.1141790329E+03
  -.1141790329E+03
  -.1141790329E+03
[GEOCONV]
energy
  -.1141707315E+03
  -.1141722970E+03
  -.1141784375E+03
  -.1141790219E+03
  -.1141790309E+03
  -.1141790328E+03
  -.1141790329E+03
[GEOMETRIES] (XYZ)
      6

C         0.914750      0.040510     -0.006200
O         0.439050     -0.598500      1.164150
H         0.549050      1.069880     -0.022540
H         0.545100     -0.489170     -0.887630
H         2.007500      0.044440     -0.001870
H         0.779310     -1.509260      1.151040
      6

C         0.914871      0.040685     -0.006497
O         0.435649     -0.597576      1.169212
H         0.548879      1.071377     -0.023163
H         0.545871     -0.488161     -0.891456
H         2.009847      0.046032     -0.004752
H         0.779642     -1.514457      1.153607
      6

C         0.916055      0.035367     -0.005094
O         0.409161     -0.590431      1.208677
H         0.546346      1.075043     -0.021280
H         0.554200     -0.483290     -0.917367
H         2.025753      0.053785     -0.026295
H         0.783244     -1.532574      1.158310
      6

C         0.916495      0.030426     -0.002721
O         0.397816     -0.584974      1.224226
H         0.545889      1.072531     -0.019093
H         0.559430     -0.481075     -0.924720
H         2.028943      0.055368     -0.035021
H         0.786187     -1.534375      1.154279
      6

C         0.916754      0.029309     -0.002409
O         0.396846     -0.585254      1.226147
H         0.546234      1.071553     -0.019147
H         0.560652     -0.479336     -0.926061
H         2.028802      0.056689     -0.037240
H         0.785472     -1.535060      1.155659
      6

C         0.916800      0.028591     -0.001987
O         0.396879     -0.584985      1.226136
H         0.546408      1.070944     -0.019168
H         0.560736     -0.478714     -0.926428
H         2.028816      0.057381     -0.037717
H         0.785121     -1.535316      1.156114
      6

C         0.916928      0.028242     -0.001909
O         0.397176     -0.585253      1.226117
H         0.546494      1.070693     -0.019295
H         0.560583     -0.478312     -0.926788
H         2.029022      0.058060     -0.037944
H         0.784558     -1.535530      1.156769
