[Molden Format]
[Atoms] (AU)
  C         1      6         -0.0089830833         -0.0044972355         -0.1447915889
  H         2      1         -1.6786249534          0.9595977320         -0.8310055607
  H         3      1          1.6626603770          0.9624170816         -0.8221081716
  H         4      1         -0.0055299927         -1.9326377869         -0.8306014430
  H         5      1         -0.0144286656         -0.0073623544          1.9014896445
[GTO] (AU)
      1
  s     3
    0.1722560000E+03    0.6176690738E-01
    0.2591090000E+02    0.3587940429E+00
    0.5533350000E+01    0.7007130837E+00
  s     2
    0.3664980000E+01   -0.3958951621E+00
    0.7705450000E+00    0.1215834356E+01
  p     2
    0.3664980000E+01    0.2364599466E+00
    0.7705450000E+00    0.8606188057E+00
  s     1
    0.1958570000E+00    0.1000000000E+01
  p     1
    0.1958570000E+00    0.1000000000E+01

      2
  s     2
    0.5447178000E+01    0.1562849787E+00
    0.8245472400E+00    0.9046908767E+00
  s     1
    0.1831915800E+00    0.1000000000E+01

      3
  s     2
    0.5447178000E+01    0.1562849787E+00
    0.8245472400E+00    0.9046908767E+00
  s     1
    0.1831915800E+00    0.1000000000E+01

      4
  s     2
    0.5447178000E+01    0.1562849787E+00
    0.8245472400E+00    0.9046908767E+00
  s     1
    0.1831915800E+00    0.1000000000E+01

      5
  s     2
    0.5447178000E+01    0.1562849787E+00
    0.8245472400E+00    0.9046908767E+00
  s     1
    0.1831915800E+00    0.1000000000E+01

[MO]
    Sym= a1
  Ene=    -0.1114447069E+02
  Spin= Alpha
  Occup= 2.00000000
   1  -0.9870932034
   2  -0.0993573264
   3  -0.0000000099
   4  -0.0000000040
   5   0.0000033129
   6   0.0723011739
   7   0.0000000531
   8   0.0000000213
   9  -0.0000177690
  10   0.0005553464
  11  -0.0141080537
  12   0.0005553448
  13  -0.0141080561
  14   0.0005553445
  15  -0.0141080556
  16   0.0005596812
  17  -0.0141030715
    Sym= a2
  Ene=    -0.9458722152E+00
  Spin= Alpha
  Occup= 2.00000000
   1   0.2089052791
   2  -0.2024402269
   3  -0.0000002375
   4  -0.0000000964
   5   0.0000789966
   6  -0.6134117816
   7  -0.0000003672
   8  -0.0000001474
   9   0.0001229012
  10  -0.1229644403
  11  -0.0218037179
  12  -0.1229644436
  13  -0.0218037051
  14  -0.1229644382
  15  -0.0218037047
  16  -0.1229649889
  17  -0.0218356811
    Sym= a3
  Ene=    -0.5449598729E+00
  Spin= Alpha
  Occup= 2.00000000
   1   0.0000559048
   2  -0.0000741697
   3   0.0008812524
   4   0.0005577961
   5  -0.3744724036
   6  -0.0001268461
   7   0.0007295005
   8   0.0004617412
   9  -0.3099873083
  10   0.0920181623
  11   0.0860772415
  12   0.0918793935
  13   0.0859474029
  14   0.0919137616
  15   0.0859795629
  16  -0.2758057301
  17  -0.2580284226
    Sym= a4
  Ene=    -0.5447679237E+00
  Spin= Alpha
  Occup= 2.00000000
   1   0.0000000354
   2  -0.0000000463
   3   0.3744404699
   4   0.0033614297
   5   0.0008861760
   6  -0.0000000825
   7   0.3100067509
   8   0.0027829920
   9   0.0007336810
  10  -0.2240865077
  11  -0.2098041630
  12   0.2262576379
  13   0.2118369036
  14  -0.0020863535
  15  -0.0019533942
  16  -0.0000847744
  17  -0.0000793657
    Sym= a5
  Ene=    -0.5447678866E+00
  Spin= Alpha
  Occup= 2.00000000
   1   0.0000000165
   2  -0.0000000228
   3   0.0033627408
   4  -0.3744410980
   5  -0.0005498354
   6  -0.0000000348
   7   0.0027840833
   8  -0.3100072819
   9  -0.0004552207
  10  -0.1318259811
  11  -0.1234239514
  12  -0.1281633717
  13  -0.1199947938
  14   0.2600148037
  15   0.2434425692
  16  -0.0000254476
  17  -0.0000238264
    Sym= a6
  Ene=     0.2966713061E+00
  Spin= Alpha
  Occup= 0.00000000
   1   0.1790572485
   2  -0.0417070634
   3  -0.0000001501
   4  -0.0000000550
   5   0.0000525597
   6  -2.5314094284
   7  -0.0000015642
   8  -0.0000006050
   9   0.0005340562
  10  -0.0052150315
  11   0.9555148880
  12  -0.0052150631
  13   0.9555148050
  14  -0.0052150588
  15   0.9555148683
  16  -0.0051451938
  17   0.9556089764
    Sym= a7
  Ene=     0.3525421300E+00
  Spin= Alpha
  Occup= 0.00000000
   1   0.0000000054
   2  -0.0000000162
   3   0.0538527644
   4  -0.2630554305
   5  -0.0002702629
   6   0.0000000266
   7   0.2872361882
   8  -1.4030666417
   9  -0.0014415439
  10   0.0518425511
  11   1.1328517910
  12   0.0247852833
  13   0.5416020205
  14  -0.0766417586
  15  -1.6747598843
  16   0.0000140199
  17   0.0003058398
    Sym= a8
  Ene=     0.3525421467E+00
  Spin= Alpha
  Occup= 0.00000000
   1  -0.0000000019
   2  -0.0000000213
   3   0.2630548410
   4   0.0538519536
   5   0.0006879233
   6   0.0000002222
   7   1.4030636668
   8   0.2872317330
   9   0.0036690841
  10   0.0585499123
  11   1.2794198944
  12  -0.0741894089
  13  -1.6211727537
  14   0.0156125345
  15   0.3411609204
  16   0.0000271003
  17   0.0005913671
    Sym= a9
  Ene=     0.3526164746E+00
  Spin= Alpha
  Occup= 0.00000000
   1   0.0000045847
   2  -0.0000365240
   3   0.0006197293
   4   0.0004027503
   5  -0.2685162492
   6   0.0002186478
   7   0.0033076886
   8   0.0021495163
   9  -1.4331039364
  10  -0.0275669537
  11  -0.6053547407
  12  -0.0275191779
  13  -0.6043082096
  14  -0.0275313357
  15  -0.6045745567
  16   0.0828425027
  17   1.8134908349
   Sym= a10
  Ene=     0.9230814264E+00
  Spin= Alpha
  Occup= 0.00000000
   1  -0.0000000069
   2  -0.0000001883
   3   0.4194432342
   4  -0.6206007120
   5  -0.0000247974
   6  -0.0000000015
   7  -0.7018435505
   8   1.0384349681
   9   0.0000416378
  10  -0.5527787231
  11   0.0135029057
  12   0.0430380819
  13  -0.0010509314
  14   0.5099772238
  15  -0.0124570009
  16  -0.0002373341
  17   0.0000058517
   Sym= a11
  Ene=     0.9230814461E+00
  Spin= Alpha
  Occup= 0.00000000
   1  -0.0000000033
   2  -0.0000001383
   3   0.6205986774
   4   0.4194417922
   5   0.0019363277
   6  -0.0000000427
   7  -1.0384318069
   8  -0.7018410265
   9  -0.0032397543
  10  -0.2694996305
  11   0.0065831398
  12   0.6136701377
  13  -0.0149896827
  14  -0.3439073473
  15   0.0084008605
  16  -0.0002637236
  17   0.0000063517
   Sym= a12
  Ene=     0.9231622479E+00
  Spin= Alpha
  Occup= 0.00000000
   1  -0.0000090240
   2  -0.0002603304
   3   0.0015904196
   4   0.0011048525
   5  -0.7490710365
   6  -0.0000160602
   7  -0.0026644659
   8  -0.0018508036
   9   1.2547986822
  10   0.2175063278
  11  -0.0045171707
  12   0.2169329228
  13  -0.0045040326
  14   0.2171500778
  15  -0.0045090946
  16  -0.6526343556
  17   0.0146940794
   Sym= a13
  Ene=     0.1333252357E+01
  Spin= Alpha
  Occup= 0.00000000
   1  -0.1299164175
   2   0.1379210395
   3  -0.0000102545
   4  -0.0000041774
   5   0.0033940383
   6   0.3183533297
   7   0.0000148581
   8   0.0000060333
   9  -0.0049295946
  10  -0.6702368799
  11   0.2463514492
  12  -0.6702350443
  13   0.2463480364
  14  -0.6702352845
  15   0.2463483673
  16  -0.6742774969
  17   0.2540709798
   Sym= a14
  Ene=     0.1358880747E+01
  Spin= Alpha
  Occup= 0.00000000
   1   0.0000001041
   2  -0.0000001966
   3   0.0374681935
   4   0.8617213572
   5   0.0013764206
   6  -0.0000000829
   7  -0.0426280856
   8  -0.9803923199
   9  -0.0015659710
  10  -0.4066673243
  11   0.6148197000
  12  -0.4743148593
  13   0.7170924570
  14   0.8810600256
  15  -1.3320280814
  16  -0.0000756434
  17   0.0001149396
   Sym= a15
  Ene=     0.1358880793E+01
  Spin= Alpha
  Occup= 0.00000000
   1   0.0000003004
   2  -0.0000004810
   3  -0.8617200246
   4   0.0374713417
   5  -0.0019997275
   6  -0.0000004093
   7   0.9803907656
   8  -0.0426316594
   9   0.0022751218
  10  -0.7824372459
  11   1.1829276947
  12   0.7435585266
  13  -1.1241455606
  14   0.0391450892
  15  -0.0591797168
  16  -0.0002600687
  17   0.0003949365
   Sym= a16
  Ene=     0.1359097752E+01
  Spin= Alpha
  Occup= 0.00000000
   1   0.0004594192
   2  -0.0007667103
   3  -0.0020578298
   4  -0.0012883669
   5   0.8626075589
   6  -0.0005654212
   7   0.0023407588
   8   0.0014655079
   9  -0.9812083475
  10   0.3145055596
  11  -0.4727256612
  12   0.3140841413
  13  -0.4720887821
  14   0.3141707981
  15  -0.4722197212
  16  -0.9331075176
  17   1.4129181572
   Sym= a17
  Ene=     0.1955846694E+01
  Spin= Alpha
  Occup= 0.00000000
   1   0.0163495323
   2   2.0032051950
   3   0.0000005197
   4   0.0000002080
   5  -0.0001739057
   6  -3.9256370217
   7  -0.0000039676
   8  -0.0000015905
   9   0.0013281927
  10   0.1411476023
  11   0.7765201245
  12   0.1411478290
  13   0.7765202405
  14   0.1411478643
  15   0.7765201996
  16   0.1405361778
  17   0.7763019871
[SCFCONV]
  scf-first    1  THROUGH    8
  -.4003502244E+02
  -.3995440553E+02
  -.3997354798E+02
  -.3997517034E+02
  -.3997530340E+02
  -.3997531237E+02
  -.3997531246E+02
  -.3997531246E+02
  scf    1  THROUGH    5
  -.3998349758E+02
  -.3997590788E+02
  -.3997590896E+02
  -.3997590905E+02
  -.3997590905E+02
  scf    1  THROUGH    6
  -.4000593664E+02
  -.3997685511E+02
  -.3997687035E+02
  -.3997687152E+02
  -.3997687159E+02
  -.3997687159E+02
  scf    1  THROUGH    5
  -.3997479444E+02
  -.3997687721E+02
  -.3997687729E+02
  -.3997687729E+02
  -.3997687729E+02
  scf-last    1  THROUGH    4
  -.3997692973E+02
  -.3997687750E+02
  -.3997687750E+02
  -.3997687750E+02
[GEOCONV]
energy
  -.3997531246E+02
  -.3997590905E+02
  -.3997687159E+02
  -.3997687729E+02
  -.3997687750E+02
[GEOMETRIES] (XYZ)
      5

C        -0.004759     -0.002381     -0.074807
H        -0.906375      0.518247     -0.449664
H         0.897963      0.519772     -0.444858
H        -0.002884     -1.043599     -0.449445
H        -0.007708     -0.003935      1.034053
      5

C        -0.004759     -0.002381     -0.074958
H        -0.902319      0.515904     -0.447655
H         0.893900      0.517421     -0.442871
H        -0.002893     -1.038914     -0.447438
H        -0.007693     -0.003927      1.028201
      5

C        -0.004755     -0.002381     -0.076086
H        -0.887027      0.507068     -0.439510
H         0.878579      0.508559     -0.434808
H        -0.002928     -1.021249     -0.439296
H        -0.007632     -0.003894      1.004980
      5

C        -0.004754     -0.002380     -0.076404
H        -0.888226      0.507761     -0.439891
H         0.879779      0.509253     -0.435183
H        -0.002926     -1.022634     -0.439677
H        -0.007636     -0.003896      1.006434
      5

C        -0.004754     -0.002380     -0.076620
H        -0.888290      0.507797     -0.439749
H         0.879842      0.509289     -0.435041
H        -0.002926     -1.022708     -0.439535
H        -0.007635     -0.003896      1.006225
