[Molden Format]
[Atoms] (AU)
  O         1      8          0.0000000000          0.9313761049          0.5778422077
  H         2      1          0.0000000000          0.1129737945          2.2285358923
  H         3      1          0.0000000000          2.7585999005          0.8321309729
[GTO] (AU)
      1
  s     6
    0.5484671660E+04    0.1831074430E-02
    0.8252349460E+03    0.1395017220E-01
    0.1880469580E+03    0.6844507810E-01
    0.5296450000E+02    0.2327143360E+00
    0.1689757040E+02    0.4701928980E+00
    0.5799635340E+01    0.3585208530E+00
  s     3
    0.1553961625E+02   -0.1107775495E+00
    0.3599933586E+01   -0.1480262627E+00
    0.1013761750E+01    0.1130767015E+01
  p     3
    0.1553961625E+02    0.7087426823E-01
    0.3599933586E+01    0.3397528391E+00
    0.1013761750E+01    0.7271585773E+00
  s     1
    0.2700058226E+00    0.1000000000E+01
  p     1
    0.2700058226E+00    0.1000000000E+01

      2
  s     3
    0.1873113696E+02    0.3349460434E-01
    0.2825394365E+01    0.2347269535E+00
    0.6401216923E+00    0.8137573261E+00
  s     1
    0.1612777588E+00    0.1000000000E+01

      3
  s     3
    0.1873113696E+02    0.3349460434E-01
    0.2825394365E+01    0.2347269535E+00
    0.6401216923E+00    0.8137573261E+00
  s     1
    0.1612777588E+00    0.1000000000E+01

[MO]
    Sym= a1
  Ene=    -0.1913339389E+02
  Spin= Alpha
  Occup= 2.00000000
   1   0.9950421842
   2   0.0278501635
   3   0.0000000004
   4   0.0009946136
   5   0.0018873533
   6  -0.0129939319
   7  -0.0000000002
   8  -0.0011981922
   9  -0.0022738981
  10   0.0001121347
  11   0.0030169472
  12   0.0001161349
  13   0.0030055409
    Sym= a2
  Ene=    -0.1006354998E+01
  Spin= Alpha
  Occup= 2.00000000
   1   0.2104227046
   2  -0.4659345592
   3  -0.0000000135
   4  -0.0671496850
   5  -0.1278204008
   6  -0.4572343987
   7   0.0000000121
   8  -0.0320783807
   9  -0.0607506313
  10  -0.1465982837
  11  -0.0010468207
  12  -0.1460402398
  13  -0.0010577445
    Sym= a3
  Ene=    -0.5298297797E+00
  Spin= Alpha
  Occup= 2.00000000
   1  -0.0001407964
   2   0.0002593637
   3  -0.0000001286
   4   0.4530629729
   5  -0.2395718472
   6   0.0007476492
   7  -0.0000004038
   8   0.2080217177
   9  -0.1098373319
  10  -0.2657080079
  11  -0.1481846441
  12   0.2656001940
  13   0.1483321255
    Sym= a4
  Ene=    -0.3482889308E+00
  Spin= Alpha
  Occup= 2.00000000
   1   0.0871666494
   2  -0.1942572487
   3  -0.0000006061
   4   0.2566650639
   5   0.4856165674
   6  -0.3597114015
   7  -0.0000006646
   8   0.1802815654
   9   0.3409647905
  10   0.1384940143
  11   0.1062995614
  12   0.1386078798
  13   0.1065865481
    Sym= a5
  Ene=    -0.2895596298E+00
  Spin= Alpha
  Occup= 2.00000000
   1   0.0000001040
   2  -0.0000002223
   3   0.6459195626
   4   0.0000001714
   5   0.0000004347
   6  -0.0000004998
   7   0.5053506602
   8   0.0000003818
   9   0.0000003515
  10  -0.0000000089
  11  -0.0000000130
  12   0.0000003490
  13   0.0000004034
    Sym= a6
  Ene=     0.5289760023E-01
  Spin= Alpha
  Occup= 0.00000000
   1   0.0894993043
   2  -0.1571170010
   3  -0.0000001705
   4  -0.1362289840
   5  -0.2552303956
   6  -1.0744915560
   7   0.0000000359
   8  -0.2041964409
   9  -0.3829958942
  10   0.1077872841
  11   0.9246940171
  12   0.1086050188
  13   0.9284613544
    Sym= a7
  Ene=     0.1425599916E+00
  Spin= Alpha
  Occup= 0.00000000
   1   0.0002211521
   2  -0.0003397783
   3   0.0000003931
   4   0.3730190314
   5  -0.1975814205
   6  -0.0039050587
   7  -0.0000001171
   8   0.6689706153
   9  -0.3545664296
  10   0.0958997704
  11   1.2517786814
  12  -0.0960654391
  13  -1.2459379239
    Sym= a8
  Ene=     0.8228553779E+00
  Spin= Alpha
  Occup= 0.00000000
   1   0.0007887051
   2  -0.0046777673
   3  -0.0000015321
   4  -0.2288706430
   5   0.1082981687
   6   0.0071835470
   7   0.0000015987
   8  -0.3822185735
   9   0.2081837495
  10  -0.9609948232
  11   0.6972567652
  12   0.9919008264
  13  -0.7228849961
    Sym= a9
  Ene=     0.8509515896E+00
  Spin= Alpha
  Occup= 0.00000000
   1   0.0434414411
   2  -0.2276089766
   3  -0.0000034347
   4  -0.2932019215
   5  -0.5638036312
   6   0.2654713264
   7   0.0000036508
   8   0.1401714450
   9   0.2415661511
  10   0.8448031794
  11  -0.6384878928
  12   0.8072348059
  13  -0.6152925376
   Sym= a10
  Ene=     0.8905806052E+00
  Spin= Alpha
  Occup= 0.00000000
   1   0.0000003794
   2  -0.0000020779
   3   0.9585584554
   4   0.0000015471
   5  -0.0000007355
   6   0.0000009140
   7  -1.0395513955
   8  -0.0000057113
   9  -0.0000003874
  10   0.0000030601
  11  -0.0000036395
  12   0.0000063643
  13  -0.0000011951
   Sym= a11
  Ene=     0.9442375659E+00
  Spin= Alpha
  Occup= 0.00000000
   1  -0.0674186124
   2   0.3951264242
   3   0.0000031351
   4  -0.3390405767
   5  -0.6439842083
   6  -0.0336083585
   7  -0.0000035011
   8   0.5440697055
   9   1.0373046250
  10  -0.5271907289
  11   0.0792158096
  12  -0.5255399673
  13   0.0822621726
   Sym= a12
  Ene=     0.1071465207E+01
  Spin= Alpha
  Occup= 0.00000000
   1   0.0001289479
   2  -0.0011409569
   3  -0.0000021430
   4   0.8601184538
   5  -0.4539385987
   6   0.0019388044
   7   0.0000025240
   8  -1.5146996575
   9   0.7989021628
  10  -0.0906829586
  11  -0.8640356296
  12   0.0943166658
  13   0.8611346365
   Sym= a13
  Ene=     0.1408286756E+01
  Spin= Alpha
  Occup= 0.00000000
   1  -0.0591074935
   2   1.6765464023
   3  -0.0000000271
   4   0.0833223302
   5   0.1572793903
   6  -2.7089745316
   7   0.0000000353
   8  -0.3670508051
   9  -0.6964637109
  10   0.4187845155
  11   0.6181476371
  12   0.4191815901
  13   0.6150291842
[SCFCONV]
  scf-first    1  THROUGH   12
  -.7604402265E+02
  -.7607641793E+02
  -.7585321815E+02
  -.7618029293E+02
  -.7618096193E+02
  -.7618098436E+02
  -.7618098751E+02
  -.7618098815E+02
  -.7618098828E+02
  -.7618098829E+02
  -.7618098829E+02
  -.7618098829E+02
  scf    1  THROUGH    8
  -.7618631570E+02
  -.7618284877E+02
  -.7618281959E+02
  -.7618286583E+02
  -.7618286605E+02
  -.7618286608E+02
  -.7618286608E+02
  -.7618286608E+02
  scf    1  THROUGH    9
  -.7621366004E+02
  -.7619247701E+02
  -.7619159512E+02
  -.7619302819E+02
  -.7619303499E+02
  -.7619303581E+02
  -.7619303586E+02
  -.7619303587E+02
  -.7619303587E+02
  scf    1  THROUGH    9
  -.7622595167E+02
  -.7620223602E+02
  -.7620131801E+02
  -.7620287594E+02
  -.7620288360E+02
  -.7620288425E+02
  -.7620288428E+02
  -.7620288428E+02
  -.7620288428E+02
  scf    1  THROUGH    8
  -.7623603426E+02
  -.7621156900E+02
  -.7621070614E+02
  -.7621223663E+02
  -.7621224441E+02
  -.7621224492E+02
  -.7621224493E+02
  -.7621224493E+02
  scf    1  THROUGH    8
  -.7624619740E+02
  -.7622039988E+02
  -.7621959098E+02
  -.7622110063E+02
  -.7622110859E+02
  -.7622110899E+02
  -.7622110900E+02
  -.7622110900E+02
  scf    1  THROUGH    8
  -.7625604239E+02
  -.7622868008E+02
  -.7622794272E+02
  -.7622940364E+02
  -.7622941166E+02
  -.7622941197E+02
  -.7622941197E+02
  -.7622941197E+02
  scf    1  THROUGH    8
  -.7626545989E+02
  -.7623634249E+02
  -.7623569829E+02
  -.7623707130E+02
  -.7623707920E+02
  -.7623707943E+02
  -.7623707944E+02
  -.7623707944E+02
  scf    1  THROUGH    8
  -.7627439787E+02
  -.7624328821E+02
  -.7624275530E+02
  -.7624400220E+02
  -.7624400983E+02
  -.7624401000E+02
  -.7624401000E+02
  -.7624401000E+02
  scf    1  THROUGH    7
  -.7628318517E+02
  -.7624952677E+02
  -.7624911269E+02
  -.7625021369E+02
  -.7625022104E+02
  -.7625022115E+02
  -.7625022115E+02
  scf    1  THROUGH    7
  -.7629229916E+02
  -.7625522185E+02
  -.7625493777E+02
  -.7625586676E+02
  -.7625587407E+02
  -.7625587414E+02
  -.7625587414E+02
  scf    1  THROUGH    7
  -.7630381969E+02
  -.7626184196E+02
  -.7626171994E+02
  -.7626242040E+02
  -.7626242886E+02
  -.7626242890E+02
  -.7626242890E+02
  scf    1  THROUGH    7
  -.7630684406E+02
  -.7627433227E+02
  -.7627440759E+02
  -.7627453250E+02
  -.7627454192E+02
  -.7627454194E+02
  -.7627454194E+02
  scf    1  THROUGH    7
  -.7630323916E+02
  -.7628935126E+02
  -.7628937827E+02
  -.7628938542E+02
  -.7628938771E+02
  -.7628938773E+02
  -.7628938773E+02
  scf    1  THROUGH    6
  -.7631519955E+02
  -.7630646160E+02
  -.7630645284E+02
  -.7630650423E+02
  -.7630650457E+02
  -.7630650458E+02
  scf    1  THROUGH    6
  -.7632444969E+02
  -.7632031192E+02
  -.7632029908E+02
  -.7632034112E+02
  -.7632034118E+02
  -.7632034118E+02
  scf    1  THROUGH    6
  -.7634249630E+02
  -.7633412181E+02
  -.7633411709E+02
  -.7633415295E+02
  -.7633415315E+02
  -.7633415315E+02
  scf    1  THROUGH    6
  -.7635063076E+02
  -.7634499443E+02
  -.7634499079E+02
  -.7634500955E+02
  -.7634500960E+02
  -.7634500960E+02
  scf    1  THROUGH    6
  -.7636025987E+02
  -.7635516439E+02
  -.7635516206E+02
  -.7635517648E+02
  -.7635517652E+02
  -.7635517652E+02
  scf    1  THROUGH    6
  -.7636615326E+02
  -.7636341474E+02
  -.7636341441E+02
  -.7636342069E+02
  -.7636342073E+02
  -.7636342073E+02
  scf    1  THROUGH    6
  -.7637206313E+02
  -.7637077875E+02
  -.7637077931E+02
  -.7637078231E+02
  -.7637078235E+02
  -.7637078235E+02
  scf    1  THROUGH    6
  -.7637610141E+02
  -.7637643968E+02
  -.7637644164E+02
  -.7637644178E+02
  -.7637644189E+02
  -.7637644189E+02
  scf    1  THROUGH    6
  -.7637781971E+02
  -.7638094757E+02
  -.7638094849E+02
  -.7638094855E+02
  -.7638094863E+02
  -.7638094863E+02
  scf    1  THROUGH    6
  -.7637934104E+02
  -.7638398614E+02
  -.7638398844E+02
  -.7638398998E+02
  -.7638399020E+02
  -.7638399020E+02
  scf    1  THROUGH    6
  -.7637749033E+02
  -.7638572102E+02
  -.7638572120E+02
  -.7638572455E+02
  -.7638572462E+02
  -.7638572462E+02
  scf    1  THROUGH    6
  -.7637939806E+02
  -.7638609548E+02
  -.7638609960E+02
  -.7638610036E+02
  -.7638610067E+02
  -.7638610067E+02
  scf-last    1  THROUGH    6
  -.7638401210E+02
  -.7638611492E+02
  -.7638611516E+02
  -.7638611555E+02
  -.7638611558E+02
  -.7638611558E+02
[GEOCONV]
energy
  -.7618098829E+02
  -.7618286608E+02
  -.7619303587E+02
  -.7620288428E+02
  -.7621224493E+02
  -.7622110900E+02
  -.7622941197E+02
  -.7623707944E+02
  -.7624401000E+02
  -.7625022115E+02
  -.7625587414E+02
  -.7626242890E+02
  -.7627454194E+02
  -.7628938773E+02
  -.7630650458E+02
  -.7632034118E+02
  -.7633415315E+02
  -.7634500960E+02
  -.7635517652E+02
  -.7636342073E+02
  -.7637078235E+02
  -.7637644189E+02
  -.7638094863E+02
  -.7638399020E+02
  -.7638572462E+02
  -.7638610067E+02
  -.7638611558E+02
[GEOMETRIES] (XYZ)
      3

O         0.000000      0.000000     -0.129477
H         0.000000      0.518247      1.027447
H         0.000000      1.494187      1.027447
      3

O         0.000000      0.007209     -0.124450
H         0.000000      0.516883      1.028296
H         0.000000      1.488343      1.021570
      3

O         0.000000      0.044972     -0.096826
H         0.000000      0.512996      1.030750
H         0.000000      1.454466      0.991492
      3

O         0.000000      0.081836     -0.068802
H         0.000000      0.511488      1.031466
H         0.000000      1.419110      0.962752
      3

O         0.000000      0.118271     -0.041439
H         0.000000      0.508437      1.032786
H         0.000000      1.385726      0.934068
      3

O         0.000000      0.154184     -0.014625
H         0.000000      0.504826      1.034382
H         0.000000      1.353424      0.905659
      3

O         0.000000      0.189595      0.011577
H         0.000000      0.500803      1.036362
H         0.000000      1.322036      0.877477
      3

O         0.000000      0.224561      0.037030
H         0.000000      0.496425      1.038973
H         0.000000      1.291448      0.849413
      3

O         0.000000      0.259217      0.061642
H         0.000000      0.491588      1.042504
H         0.000000      1.261629      0.821270
      3

O         0.000000      0.293886      0.085693
H         0.000000      0.485645      1.047097
H         0.000000      1.232903      0.792626
      3

O         0.000000      0.329194      0.109753
H         0.000000      0.477199      1.053138
H         0.000000      1.206041      0.762525
      3

O         0.000000      0.366993      0.135519
H         0.000000      0.461559      1.062233
H         0.000000      1.183883      0.727664
      3

O         0.000000      0.397512      0.157547
H         0.000000      0.433457      1.075365
H         0.000000      1.181466      0.692505
      3

O         0.000000      0.411767      0.171336
H         0.000000      0.404036      1.086173
H         0.000000      1.196632      0.667908
      3

O         0.000000      0.417571      0.186894
H         0.000000      0.369905      1.092448
H         0.000000      1.224958      0.646074
      3

O         0.000000      0.425323      0.195981
H         0.000000      0.341397      1.102917
H         0.000000      1.245715      0.626519
      3

O         0.000000      0.429691      0.212975
H         0.000000      0.307194      1.107630
H         0.000000      1.275549      0.604810
      3

O         0.000000      0.438545      0.224243
H         0.000000      0.278002      1.116537
H         0.000000      1.295887      0.584636
      3

O         0.000000      0.444266      0.238995
H         0.000000      0.246568      1.122579
H         0.000000      1.321601      0.563842
      3

O         0.000000      0.453582      0.249534
H         0.000000      0.218264      1.131510
H         0.000000      1.340588      0.544372
      3

O         0.000000      0.458880      0.263873
H         0.000000      0.187818      1.137509
H         0.000000      1.365736      0.524034
      3

O         0.000000      0.468355      0.274260
H         0.000000      0.159923      1.146139
H         0.000000      1.384156      0.505017
      3

O         0.000000      0.474159      0.286660
H         0.000000      0.131001      1.153109
H         0.000000      1.407275      0.485647
      3

O         0.000000      0.483465      0.295283
H         0.000000      0.104011      1.162374
H         0.000000      1.424958      0.467759
      3

O         0.000000      0.488480      0.305039
H         0.000000      0.076394      1.170600
H         0.000000      1.447560      0.449777
      3

O         0.000000      0.495047      0.306620
H         0.000000      0.059833      1.178895
H         0.000000      1.457555      0.439901
      3

O         0.000000      0.492863      0.305781
H         0.000000      0.059783      1.179290
H         0.000000      1.459788      0.440345
