[Molden Format]
[Atoms] (AU)
  O         1      8          0.0000000000          0.9313761049          0.5778422077
  H         2      1          0.0000000000          0.1129737945          2.2285358923
  H         3      1          0.0000000000          2.7585999005          0.8321309729
[GTO] (AU)
      1
  s     6
    0.5484671660E+04    0.1831074430E-02
    0.8252349460E+03    0.1395017220E-01
    0.1880469580E+03    0.6844507810E-01
    0.5296450000E+02    0.2327143360E+00
    0.1689757040E+02    0.4701928980E+00
    0.5799635340E+01    0.3585208530E+00
  s     3
    0.1553961625E+02   -0.1107775495E+00
    0.3599933586E+01   -0.1480262627E+00
    0.1013761750E+01    0.1130767015E+01
  p     3
    0.1553961625E+02    0.7087426823E-01
    0.3599933586E+01    0.3397528391E+00
    0.1013761750E+01    0.7271585773E+00
  s     1
    0.2700058226E+00    0.1000000000E+01
  p     1
    0.2700058226E+00    0.1000000000E+01

      2
  s     3
    0.1873113696E+02    0.3349460434E-01
    0.2825394365E+01    0.2347269535E+00
    0.6401216923E+00    0.8137573261E+00
  s     1
    0.1612777588E+00    0.1000000000E+01

      3
  s     3
    0.1873113696E+02    0.3349460434E-01
    0.2825394365E+01    0.2347269535E+00
    0.6401216923E+00    0.8137573261E+00
  s     1
    0.1612777588E+00    0.1000000000E+01

[MO]
    Sym= a1
  Ene=    -0.1913339389E+02
  Spin= Alpha
  Occup= 2.00000000
   1   0.9950421842
   2   0.0278501635
   3   0.0000000004
   4   0.0009946136
   5   0.0018873533
   6  -0.0129939319
   7  -0.0000000002
   8  -0.0011981922
   9  -0.0022738981
  10   0.0001121347
  11   0.0030169472
  12   0.0001161349
  13   0.0030055409
    Sym= a2
  Ene=    -0.1006354998E+01
  Spin= Alpha
  Occup= 2.00000000
   1   0.2104227046
   2  -0.4659345592
   3  -0.0000000135
   4  -0.0671496850
   5  -0.1278204008
   6  -0.4572343987
   7   0.0000000121
   8  -0.0320783807
   9  -0.0607506313
  10  -0.1465982837
  11  -0.0010468207
  12  -0.1460402398
  13  -0.0010577445
    Sym= a3
  Ene=    -0.5298297797E+00
  Spin= Alpha
  Occup= 2.00000000
   1  -0.0001407964
   2   0.0002593637
   3  -0.0000001286
   4   0.4530629729
   5  -0.2395718472
   6   0.0007476492
   7  -0.0000004038
   8   0.2080217177
   9  -0.1098373319
  10  -0.2657080079
  11  -0.1481846441
  12   0.2656001940
  13   0.1483321255
    Sym= a4
  Ene=    -0.3482889308E+00
  Spin= Alpha
  Occup= 2.00000000
   1   0.0871666494
   2  -0.1942572487
   3  -0.0000006061
   4   0.2566650639
   5   0.4856165674
   6  -0.3597114015
   7  -0.0000006646
   8   0.1802815654
   9   0.3409647905
  10   0.1384940143
  11   0.1062995614
  12   0.1386078798
  13   0.1065865481
    Sym= a5
  Ene=    -0.2895596298E+00
  Spin= Alpha
  Occup= 2.00000000
   1   0.0000001040
   2  -0.0000002223
   3   0.6459195626
   4   0.0000001714
   5   0.0000004347
   6  -0.0000004998
   7   0.5053506602
   8   0.0000003818
   9   0.0000003515
  10  -0.0000000089
  11  -0.0000000130
  12   0.0000003490
  13   0.0000004034
    Sym= a6
  Ene=     0.5289760023E-01
  Spin= Alpha
  Occup= 0.00000000
   1   0.0894993043
   2  -0.1571170010
   3  -0.0000001705
   4  -0.1362289840
   5  -0.2552303956
   6  -1.0744915560
   7   0.0000000359
   8  -0.2041964409
   9  -0.3829958942
  10   0.1077872841
  11   0.9246940171
  12   0.1086050188
  13   0.9284613544
    Sym= a7
  Ene=     0.1425599916E+00
  Spin= Alpha
  Occup= 0.00000000
   1   0.0002211521
   2  -0.0003397783
   3   0.0000003931
   4   0.3730190314
   5  -0.1975814205
   6  -0.0039050587
   7  -0.0000001171
   8   0.6689706153
   9  -0.3545664296
  10   0.0958997704
  11   1.2517786814
  12  -0.0960654391
  13  -1.2459379239
    Sym= a8
  Ene=     0.8228553779E+00
  Spin= Alpha
  Occup= 0.00000000
   1   0.0007887051
   2  -0.0046777673
   3  -0.0000015321
   4  -0.2288706430
   5   0.1082981687
   6   0.0071835470
   7   0.0000015987
   8  -0.3822185735
   9   0.2081837495
  10  -0.9609948232
  11   0.6972567652
  12   0.9919008264
  13  -0.7228849961
    Sym= a9
  Ene=     0.8509515896E+00
  Spin= Alpha
  Occup= 0.00000000
   1   0.0434414411
   2  -0.2276089766
